ITEM: TIMESTEP
3000000
ITEM: NUMBER OF ATOMS
4650
ITEM: BOX BOUNDS pp pp pp
-6.2150000000000005e-01 6.1497498999999998e+01
-7.0029999999999997e-03 2.1549299700000000e+02
-3.2999999999999998e+00 6.7000000000000002e+00
ITEM: ATOMS id type x y z f_Totaltemperatom 
102 2 1.2624 7.86677 1.68123 298.989 
106 2 3.73959 7.87872 1.75115 299.745 
110 2 6.21105 7.8436 1.69641 295.124 
114 2 8.69724 7.84617 1.6999 296.704 
118 2 11.1993 7.87729 1.71272 294.58 
122 2 13.6767 7.83785 1.72452 296.802 
126 2 16.1527 7.8864 1.6504 295.98 
130 2 18.5893 7.88843 1.6268 292.421 
134 2 21.1327 7.85111 1.63404 303.702 
138 2 23.6211 7.87088 1.63247 301.508 
142 2 26.0868 7.86665 1.63837 300.595 
146 2 28.5489 7.86889 1.72839 301.472 
150 2 31.0343 7.89661 1.72336 296.437 
154 2 33.5425 7.88252 1.70811 299.807 
158 2 36.0182 7.85514 1.76944 305.364 
162 2 38.5492 7.87432 1.67384 300.868 
166 2 40.9971 7.84221 1.7195 303.04 
170 2 43.483 7.8477 1.77264 300.244 
174 2 45.9672 7.85516 1.72342 300.858 
178 2 48.4806 7.87448 1.70481 299.764 
182 2 50.9101 7.8858 1.63924 302.198 
186 2 53.4224 7.8733 1.66931 297.916 
190 2 55.8994 7.9004 1.67255 300.98 
194 2 58.3872 7.89144 1.73072 295.567 
198 2 60.9186 7.85715 1.66264 302.633 
201 2 0.0262913 10.0266 1.74062 301.944 
202 2 1.28909 12.1364 2.03425 296.874 
203 2 0.0180886 11.457 1.90794 296.785 
204 2 1.21777 9.29822 1.68538 298.344 
205 2 2.43607 9.98411 1.76789 298.265 
206 2 3.70374 12.1379 1.85834 299.303 
207 2 2.48111 11.4089 1.86861 299.264 
208 2 3.703 9.28901 1.80531 298.179 
209 2 4.93131 9.98961 1.73511 299.808 
210 2 6.19987 12.1418 1.75157 295.971 
211 2 4.97016 11.4225 1.74517 294.203 
212 2 6.24468 9.29271 1.69475 298.187 
213 2 7.48239 10.0417 1.6977 295.2 
214 2 8.7104 12.1854 1.54334 298.775 
215 2 7.47149 11.4864 1.61778 298.301 
216 2 8.72203 9.29118 1.70892 296.301 
217 2 9.94706 10.0295 1.70856 296.247 
218 2 11.1728 12.2195 1.53341 295.506 
219 2 9.96395 11.4718 1.56916 293.205 
220 2 11.2428 9.33867 1.71648 293.075 
221 2 12.4643 10.0623 1.60166 298.688 
222 2 13.6679 12.2637 1.55837 292.031 
223 2 12.4322 11.5172 1.56425 295.45 
224 2 13.6961 9.33492 1.65064 296.034 
225 2 14.9451 10.0674 1.61 298.534 
226 2 16.158 12.2029 1.408 296.982 
227 2 14.9016 11.5097 1.48819 295.253 
228 2 16.1384 9.33711 1.54442 296.37 
229 2 17.3589 10.0473 1.45709 300.313 
230 2 18.6926 12.1864 1.36869 299.888 
231 2 17.4091 11.4984 1.38049 300.352 
232 2 18.5777 9.33776 1.48418 297.79 
233 2 19.891 9.98856 1.46752 297.808 
234 2 21.1963 12.1693 1.40145 298.683 
235 2 19.9099 11.4466 1.40896 297.458 
236 2 21.1194 9.25712 1.49161 302.892 
237 2 22.3858 9.97867 1.47545 305.282 
238 2 23.5894 12.1325 1.41044 299.331 
239 2 22.4042 11.4173 1.34648 301.428 
240 2 23.6633 9.29817 1.55528 303.267 
241 2 24.8722 10.0364 1.48497 303.271 
242 2 26.0772 12.2339 1.59944 301.205 
243 2 24.8449 11.4577 1.46802 299.847 
244 2 26.0958 9.31602 1.52624 299.98 
245 2 27.3193 10.0402 1.64368 300.788 
246 2 28.56 12.1912 1.7125 301.848 
247 2 27.2918 11.4788 1.60356 300.326 
248 2 28.5546 9.30287 1.72243 302.097 
249 2 29.8155 10.0189 1.82632 296.655 
250 2 31.0651 12.1543 1.93057 303.54 
251 2 29.828 11.4462 1.80229 300.292 
252 2 31.1052 9.324 1.79213 296.458 
253 2 32.344 10.044 1.93527 297.532 
254 2 33.5496 12.1725 2.07391 296.337 
255 2 32.2791 11.4569 1.98315 299.721 
256 2 33.5606 9.28219 1.91599 301.494 
257 2 34.8197 9.99622 2.01963 301.273 
258 2 36.0215 12.1763 1.89263 300.921 
259 2 34.8049 11.4713 2.00915 294.159 
260 2 36.0678 9.27005 1.90564 297.263 
261 2 37.2889 9.95739 1.8431 299.691 
262 2 38.4966 12.1342 1.91947 298.551 
263 2 37.2643 11.4011 1.85867 300.896 
264 2 38.5447 9.28335 1.75579 298.578 
265 2 39.7624 10.0254 1.72646 302.352 
266 2 41.0148 12.1629 1.90071 294.644 
267 2 39.7505 11.4605 1.82737 295.458 
268 2 40.9844 9.29496 1.71144 301.85 
269 2 42.2433 9.98301 1.7357 298.08 
270 2 43.5013 12.171 1.83115 294.449 
271 2 42.2626 11.4188 1.82547 296.371 
272 2 43.4602 9.26014 1.8028 300.385 
273 2 44.7 9.99385 1.76821 300.745 
274 2 46.0018 12.1298 1.92878 298.05 
275 2 44.7576 11.4191 1.84235 298.633 
276 2 45.9667 9.29298 1.7565 296.243 
277 2 47.222 10.0135 1.83984 299.237 
278 2 48.4867 12.1429 1.80325 299.897 
279 2 47.2772 11.4621 1.85741 300.668 
280 2 48.4197 9.30508 1.73323 296.92 
281 2 49.6269 10.0347 1.64427 299.375 
282 2 50.9655 12.1954 1.81177 296.311 
283 2 49.7191 11.4555 1.75416 295.55 
284 2 50.8705 9.31221 1.58801 300.825 
285 2 52.1407 10.0599 1.67234 299.152 
286 2 53.4111 12.2151 1.85922 298.532 
287 2 52.1913 11.5115 1.81666 299.732 
288 2 53.3791 9.31244 1.64518 292.899 
289 2 54.6211 10.0589 1.71986 305.23 
290 2 55.9273 12.1827 1.85712 297.084 
291 2 54.6533 11.4961 1.88501 300.315 
292 2 55.9171 9.35538 1.7384 300.044 
293 2 57.1591 10.0539 1.77341 299.282 
294 2 58.3924 12.1768 1.93601 299.289 
295 2 57.1773 11.4686 1.87455 299.866 
296 2 58.3681 9.34617 1.74597 294.23 
297 2 59.6675 10.0301 1.72407 297.564 
298 2 60.8924 12.1765 1.96655 293.193 
299 2 59.6583 11.4597 1.85219 297.633 
300 2 60.8749 9.31818 1.66151 297.11 
301 2 0.0172816 14.3316 2.3384 303.766 
302 2 1.28457 16.4931 2.24006 296.115 
303 2 0.02087 15.7908 2.3986 300.175 
304 2 1.28374 13.5658 2.29845 298.244 
305 2 2.50017 14.326 2.13611 296.961 
306 2 3.74879 16.4958 1.88585 297.399 
307 2 2.49377 15.7664 2.11464 296.864 
308 2 3.73565 13.5848 1.9438 298.458 
309 2 4.95607 14.3156 1.80859 303.351 
310 2 6.20384 16.4758 1.73146 298.7 
311 2 4.96634 15.7534 1.72721 303.162 
312 2 6.16711 13.6032 1.72337 302.918 
313 2 7.40961 14.3152 1.69941 297.736 
314 2 8.66502 16.4807 1.50294 300.335 
315 2 7.43206 15.7501 1.561 298.732 
316 2 8.64551 13.6238 1.62798 295.156 
317 2 9.89443 14.3318 1.51273 294.344 
318 2 11.2226 16.5461 1.34386 299.493 
319 2 9.90795 15.79 1.47298 296.67 
320 2 11.165 13.6828 1.48597 296.4 
321 2 12.4262 14.3871 1.28009 298.576 
322 2 13.7339 16.4989 1.15768 302.357 
323 2 12.4784 15.8186 1.22474 300.65 
324 2 13.6704 13.6837 1.41057 299.469 
325 2 14.975 14.3602 1.36579 298.562 
326 2 16.2746 16.5355 1.27367 299.548 
327 2 15.0156 15.8066 1.28692 298.478 
328 2 16.199 13.6227 1.40161 299.145 
329 2 17.4505 14.3671 1.38334 301.813 
330 2 18.7234 16.5051 1.41369 301.127 
331 2 17.4954 15.793 1.39159 300.538 
332 2 18.6926 13.6261 1.35 297.546 
333 2 19.9141 14.3535 1.37947 297.053 
334 2 21.1866 16.5552 1.48995 301.368 
335 2 19.952 15.7831 1.4748 298.937 
336 2 21.1536 13.621 1.39198 297.412 
337 2 22.4008 14.353 1.44116 298.906 
338 2 23.6583 16.5474 1.34558 300.224 
339 2 22.4279 15.8273 1.42429 298.925 
340 2 23.6366 13.5916 1.46985 301.165 
341 2 24.8092 14.3428 1.52573 300.259 
342 2 26.0975 16.5155 1.57532 302.215 
343 2 24.8451 15.8005 1.43338 299.376 
344 2 26.0761 13.6593 1.69196 297.403 
345 2 27.316 14.3842 1.7264 300.682 
346 2 28.5416 16.4908 1.89473 298.929 
347 2 27.3071 15.7983 1.75458 301.608 
348 2 28.5738 13.6469 1.77553 301.495 
349 2 29.8007 14.3449 1.97974 299.28 
350 2 31.0315 16.4937 1.98233 306.042 
351 2 29.8148 15.7587 1.98459 298.06 
352 2 31.0671 13.5988 2.03944 304.099 
353 2 32.2901 14.3274 2.00442 300.278 
354 2 33.5246 16.4731 1.96181 301.536 
355 2 32.2735 15.7533 1.9506 302.83 
356 2 33.5236 13.6293 2.05035 297.854 
357 2 34.802 14.3716 1.93393 302.22 
358 2 36.0317 16.4962 2.10132 298.407 
359 2 34.7737 15.7994 1.98353 298.493 
360 2 36.0455 13.6095 1.90301 301.07 
361 2 37.2754 14.2995 1.96468 297.97 
362 2 38.5477 16.411 2.22095 299.474 
363 2 37.2579 15.7332 2.14598 299.706 
364 2 38.5349 13.5902 2.06259 298.114 
365 2 39.781 14.2897 2.13291 297.532 
366 2 41.0146 16.4216 2.30596 298.59 
367 2 39.7625 15.6898 2.2386 296.113 
368 2 41.0123 13.5511 2.10704 299.146 
369 2 42.2458 14.2884 2.16412 294.015 
370 2 43.5412 16.4938 2.16345 297.425 
371 2 42.2637 15.7249 2.2233 298.656 
372 2 43.5179 13.5683 2.04855 292.576 
373 2 44.7498 14.2962 2.02311 298.68 
374 2 45.9797 16.4676 2.15865 299.123 
375 2 44.7447 15.7224 2.09066 299.491 
376 2 45.9846 13.59 1.98546 300.127 
377 2 47.2198 14.3247 2.0508 298.391 
378 2 48.4345 16.4734 2.11859 298.688 
379 2 47.2066 15.7311 2.10947 295.945 
380 2 48.4921 13.6438 1.92427 298.033 
381 2 49.6965 14.3762 1.91937 298.97 
382 2 50.8864 16.4343 2.10458 297.223 
383 2 49.6696 15.7682 2.00808 296.99 
384 2 50.9038 13.6372 1.82881 298.263 
385 2 52.1633 14.343 1.8401 298.921 
386 2 53.4266 16.5028 2.04092 299.307 
387 2 52.1673 15.7763 1.96539 299.391 
388 2 53.4504 13.6278 1.91547 300.224 
389 2 54.6684 14.3041 2.03896 303.451 
390 2 55.9043 16.4886 2.27793 300.203 
391 2 54.6903 15.7298 2.10512 301.196 
392 2 55.9143 13.6152 2.02273 298.298 
393 2 57.1712 14.2996 2.2173 295.467 
394 2 58.3461 16.4852 2.40214 300.234 
395 2 57.1561 15.726 2.32014 301.302 
396 2 58.4063 13.552 2.166 299.397 
397 2 59.6655 14.3048 2.30363 297.972 
398 2 60.8426 16.4546 2.40633 297.206 
399 2 59.5581 15.7478 2.35237 292.688 
400 2 60.9174 13.5805 2.1849 298.293 
401 2 0.00588544 18.639 2.25611 299.616 
402 2 1.27815 20.7996 2.11568 301.072 
403 2 0.00478527 20.0925 2.19261 301.917 
404 2 1.22322 17.942 2.17892 296.874 
405 2 2.51088 18.6748 2.13213 299.628 
406 2 3.7345 20.8428 2.07252 298.548 
407 2 2.50071 20.0688 2.13085 300.804 
408 2 3.75696 17.9094 1.99366 297.704 
409 2 4.99908 18.7042 1.93261 300.123 
410 2 6.30138 20.8043 2.08997 299.625 
411 2 5.04718 20.1273 2.04547 300.009 
412 2 6.26447 17.9294 1.90756 299.979 
413 2 7.5007 18.6241 1.80642 299.442 
414 2 8.77463 20.8793 1.72438 298.042 
415 2 7.52657 20.0708 1.89798 298.12 
416 2 8.68521 17.92 1.58739 301.634 
417 2 9.95116 18.6863 1.52404 300.066 
418 2 11.209 20.8815 1.41941 296.454 
419 2 9.97732 20.1508 1.54993 297.594 
420 2 11.2154 17.9889 1.34322 299.491 
421 2 12.4718 18.7076 1.23031 295.625 
422 2 13.6714 20.8704 1.30719 298.228 
423 2 12.442 20.1371 1.23768 296.368 
424 2 13.7336 17.9824 1.17073 299.499 
425 2 14.9888 18.6472 1.13658 298.631 
426 2 16.1916 20.8213 1.18123 296.067 
427 2 14.9965 20.113 1.20813 299.322 
428 2 16.2328 17.949 1.15702 294.894 
429 2 17.4727 18.6482 1.18643 296.835 
430 2 18.6693 20.7699 1.23529 300 
431 2 17.44 20.0856 1.14504 300.644 
432 2 18.7371 17.9339 1.32667 299.844 
433 2 19.9882 18.6867 1.34332 297.452 
434 2 21.1716 20.8122 1.48347 297.135 
435 2 19.9397 20.0689 1.30902 297.208 
436 2 21.1999 17.9838 1.41574 297.515 
437 2 22.4312 18.6761 1.41727 297.049 
438 2 23.6667 20.8264 1.66896 301.763 
439 2 22.4413 20.1046 1.49968 299.656 
440 2 23.6412 17.9748 1.42642 301.218 
441 2 24.8578 18.6822 1.61782 295.793 
442 2 26.1009 20.8079 1.82 298.744 
443 2 24.8566 20.1043 1.71253 299.676 
444 2 26.1093 17.9311 1.66118 300.129 
445 2 27.2788 18.6437 1.81749 299.345 
446 2 28.5536 20.7546 2.04757 295.601 
447 2 27.2981 20.0582 1.91009 299.578 
448 2 28.5443 17.9345 1.93101 302.062 
449 2 29.8189 18.606 2.05091 298.982 
450 2 31.0031 20.7723 2.17468 298.244 
451 2 29.7775 20.0565 2.10863 298.514 
452 2 31.0678 17.909 2.03064 303.148 
453 2 32.2972 18.6173 2.12542 298.345 
454 2 33.4741 20.7571 2.19821 299.059 
455 2 32.216 20.032 2.19887 298.178 
456 2 33.5227 17.8988 2.11567 299.784 
457 2 34.738 18.6055 2.17846 299.787 
458 2 36.0286 20.745 2.13691 297.679 
459 2 34.7533 20.0472 2.12885 299.677 
460 2 36.0277 17.9083 2.1817 296.822 
461 2 37.2802 18.5355 2.17449 297.675 
462 2 38.5401 20.7126 2.30051 298.131 
463 2 37.2685 20.0151 2.15803 297.128 
464 2 38.5331 17.8577 2.22635 297.455 
465 2 39.7779 18.5587 2.31289 300.666 
466 2 41.0082 20.7729 2.51067 292.42 
467 2 39.7332 20.0281 2.39047 294.748 
468 2 41.0192 17.8657 2.3695 299.28 
469 2 42.2442 18.5971 2.51584 295.807 
470 2 43.513 20.7742 2.54418 297.813 
471 2 42.2248 20.018 2.53092 294.833 
472 2 43.4803 17.881 2.3338 296.566 
473 2 44.7223 18.6378 2.38983 296.219 
474 2 45.9834 20.8038 2.43936 297.752 
475 2 44.7645 20.0293 2.45571 299.351 
476 2 45.9921 17.9204 2.2341 296.888 
477 2 47.2659 18.6438 2.17071 298.279 
478 2 48.4835 20.8571 2.31806 297.521 
479 2 47.2057 20.1437 2.25889 297.176 
480 2 48.482 17.8904 2.17084 298.358 
481 2 49.6509 18.6193 2.19014 295.863 
482 2 50.9192 20.7644 2.19225 299.385 
483 2 49.6636 20.0744 2.28441 300.311 
484 2 50.9518 17.9132 2.12873 294.447 
485 2 52.2095 18.6537 2.14896 297.183 
486 2 53.3933 20.7648 2.21832 298.537 
487 2 52.1339 20.025 2.17912 300.743 
488 2 53.4461 17.9204 2.15051 295.192 
489 2 54.652 18.6103 2.23694 298.473 
490 2 55.8982 20.7856 2.28346 298.282 
491 2 54.6619 20.0683 2.21286 299.018 
492 2 55.9083 17.895 2.26024 298.177 
493 2 57.1565 18.6263 2.37399 299.963 
494 2 58.3795 20.8658 2.30261 301.079 
495 2 57.1536 20.1089 2.24715 299.299 
496 2 58.3826 17.9104 2.39749 298.726 
497 2 59.5609 18.6655 2.39057 300.399 
498 2 60.8469 20.8103 2.25818 298.187 
499 2 59.6242 20.1218 2.31548 298.941 
500 2 60.8512 17.9753 2.38053 298.38 
501 2 -0.0252143 22.9231 2.15314 299.252 
502 2 1.23452 25.0941 2.24858 300.02 
503 2 -0.00671179 24.3709 2.2192 302.707 
504 2 1.29635 22.2347 2.17012 298.289 
505 2 2.51033 22.9548 2.0886 301.453 
506 2 3.73933 25.0743 2.1828 303.813 
507 2 2.51287 24.3937 2.14332 301.075 
508 2 3.74439 22.2531 2.07228 294.906 
509 2 4.99416 22.9323 2.10974 297.766 
510 2 6.18868 25.0775 2.13556 300.965 
511 2 4.97564 24.3446 2.1557 301.596 
512 2 6.24 22.2647 2.12076 298.161 
513 2 7.49756 22.9819 1.93844 298.75 
514 2 8.6968 25.1478 1.87652 299.43 
515 2 7.51172 24.4361 1.9977 300.446 
516 2 8.72457 22.2841 1.76736 299.004 
517 2 9.90976 23.0171 1.58836 294.865 
518 2 11.1994 25.1793 1.72279 298.2 
519 2 9.97463 24.4338 1.69569 297.628 
520 2 11.1924 22.33 1.41952 301.23 
521 2 12.4589 23.0317 1.33507 295.288 
522 2 13.752 25.17 1.55726 297.556 
523 2 12.4501 24.4885 1.48624 296.006 
524 2 13.6685 22.3188 1.33027 296.158 
525 2 14.9744 22.9934 1.38004 299.563 
526 2 16.1996 25.0969 1.63325 301.281 
527 2 15.0023 24.415 1.55553 299.667 
528 2 16.2027 22.2467 1.24449 297.107 
529 2 17.4241 22.9306 1.34682 298.458 
530 2 18.684 25.0807 1.66981 298.084 
531 2 17.4254 24.3861 1.56016 301.916 
532 2 18.648 22.1968 1.30561 300.263 
533 2 19.8709 22.9384 1.51268 295.248 
534 2 21.1652 25.1181 1.8963 296.709 
535 2 19.9263 24.38 1.67149 298.319 
536 2 21.14 22.2498 1.62034 297.626 
537 2 22.3862 22.9556 1.87823 297.999 
538 2 23.6216 25.0513 2.11837 299.628 
539 2 22.402 24.3668 2.01009 296.424 
540 2 23.6486 22.2518 1.84563 302.105 
541 2 24.8887 22.9737 1.88973 301.198 
542 2 26.1387 25.1291 2.22247 300.889 
543 2 24.9159 24.4142 2.08448 299.334 
544 2 26.1306 22.2545 1.88612 298.247 
545 2 27.3424 22.95 2.02067 302.594 
546 2 28.583 25.0716 2.19216 301.071 
547 2 27.3663 24.3859 2.14853 300.155 
548 2 28.5906 22.2361 2.01664 302.723 
549 2 29.8176 22.9314 1.98725 305.373 
550 2 31.0919 25.1195 2.32083 298.807 
551 2 29.8385 24.3805 2.14929 299.775 
552 2 31.081 22.2187 2.11368 303.125 
553 2 32.2595 22.932 2.31093 300.046 
554 2 33.5071 25.0444 2.63988 302.121 
555 2 32.2527 24.3607 2.45477 297.695 
556 2 33.5092 22.2294 2.28831 301.389 
557 2 34.761 22.8858 2.39696 298.672 
558 2 36.0105 25.1048 2.6731 299.537 
559 2 34.7578 24.3617 2.57692 299.69 
560 2 36.0323 22.1518 2.21966 298.487 
561 2 37.1975 22.9157 2.42419 300.217 
562 2 38.479 25.078 2.72517 298.282 
563 2 37.2391 24.3384 2.5536 299.428 
564 2 38.4925 22.1571 2.44351 299.625 
565 2 39.7276 22.94 2.66533 298.318 
566 2 40.9686 25.0894 2.90846 297.382 
567 2 39.7018 24.3653 2.8151 301.474 
568 2 40.9956 22.2333 2.63298 297.75 
569 2 42.2353 22.9171 2.68727 296.53 
570 2 43.4668 25.0364 2.86693 297.338 
571 2 42.1995 24.3561 2.80382 298.712 
572 2 43.4784 22.2066 2.63267 296.78 
573 2 44.7052 22.9121 2.61384 296.75 
574 2 45.9404 25.0973 2.79073 301.03 
575 2 44.6841 24.324 2.74231 300.812 
576 2 45.9567 22.2488 2.58791 300.403 
577 2 47.2067 22.9959 2.61586 300.029 
578 2 48.4324 25.0991 2.66862 301.226 
579 2 47.1417 24.3905 2.69603 301.331 
580 2 48.4438 22.2581 2.48063 297.478 
581 2 49.7066 22.9257 2.51118 302.361 
582 2 50.8991 25.1045 2.64337 300.636 
583 2 49.6966 24.385 2.63854 305.275 
584 2 50.9281 22.201 2.30341 299.092 
585 2 52.1454 22.9352 2.37222 301.476 
586 2 53.4116 25.164 2.58569 300.276 
587 2 52.1639 24.3838 2.50656 301.161 
588 2 53.3584 22.2143 2.30904 300.676 
589 2 54.6298 22.9259 2.3492 302.754 
590 2 55.8627 25.1127 2.51529 296.861 
591 2 54.6586 24.3729 2.48338 299.576 
592 2 55.8603 22.219 2.38586 299.11 
593 2 57.1158 22.9498 2.45004 300.376 
594 2 58.3878 25.0827 2.44486 298.495 
595 2 57.1486 24.3619 2.57075 296.436 
596 2 58.3523 22.2614 2.39733 302.54 
597 2 59.6015 22.9546 2.37016 303.672 
598 2 60.8578 25.0567 2.3775 296.176 
599 2 59.6171 24.3411 2.42319 301.432 
600 2 60.8545 22.1895 2.22619 300.471 
601 2 0.0200379 27.2413 2.50469 302.514 
602 2 1.22525 29.3652 2.79373 297.805 
603 2 0.00445887 28.6501 2.65904 300.689 
604 2 1.21134 26.5298 2.44651 301.78 
605 2 2.52752 27.2499 2.48513 302.36 
606 2 3.70309 29.4131 2.65729 303.151 
607 2 2.47153 28.6376 2.62543 301.09 
608 2 3.72933 26.4861 2.3399 304.413 
609 2 4.97721 27.1978 2.34198 301.802 
610 2 6.17004 29.4062 2.42178 299.306 
611 2 4.93814 28.6114 2.49889 301.606 
612 2 6.24252 26.5344 2.18287 299.131 
613 2 7.47738 27.2785 2.10718 296.443 
614 2 8.683 29.4165 2.26705 297.816 
615 2 7.41637 28.6998 2.23663 299.347 
616 2 8.66212 26.5609 1.99278 299.518 
617 2 9.91158 27.254 2.06896 297.828 
618 2 11.2155 29.4554 2.24135 295.594 
619 2 9.91943 28.6936 2.29055 298.58 
620 2 11.2068 26.6025 1.88879 298.064 
621 2 12.4469 27.3131 1.96608 298.47 
622 2 13.6809 29.4317 2.0594 300.343 
623 2 12.4753 28.7312 2.10733 298.397 
624 2 13.6924 26.6057 1.74093 299.554 
625 2 14.9609 27.331 1.84547 302.832 
626 2 16.1755 29.4457 1.93067 301.165 
627 2 14.9542 28.7685 1.885 305.07 
628 2 16.2266 26.5609 1.81136 300.89 
629 2 17.483 27.2788 1.80887 301.289 
630 2 18.64 29.4608 1.95363 299.24 
631 2 17.4113 28.7249 1.84754 305.898 
632 2 18.7193 26.528 1.80868 298.824 
633 2 19.933 27.2225 2.07812 302.758 
634 2 21.1319 29.3559 2.51525 299.19 
635 2 19.9148 28.6892 2.14661 302.694 
636 2 21.1775 26.5283 2.07587 301.422 
637 2 22.3856 27.2705 2.26671 297.975 
638 2 23.5944 29.3549 2.86355 297.947 
639 2 22.3862 28.6662 2.56566 296.834 
640 2 23.5672 26.4845 2.22573 301.277 
641 2 24.8042 27.1864 2.53732 304.049 
642 2 26.0517 29.2861 3.01906 295.251 
643 2 24.8495 28.5846 2.84209 299.445 
644 2 26.0748 26.5524 2.46669 300.545 
645 2 27.3618 27.2404 2.56716 301.44 
646 2 28.5397 29.3649 3.10804 300.093 
647 2 27.3065 28.6684 2.88623 298.471 
648 2 28.624 26.4885 2.4635 299.62 
649 2 29.8316 27.2492 2.63901 296.195 
650 2 31.0105 29.3602 3.19814 296.901 
651 2 29.7875 28.6365 2.93223 299.983 
652 2 31.0674 26.5264 2.58666 296.533 
653 2 32.2757 27.1873 2.87609 298.814 
654 2 33.4578 29.3021 3.38204 298.89 
655 2 32.2306 28.5942 3.17025 299.772 
656 2 33.5248 26.4383 2.84665 302.665 
657 2 34.7651 27.1795 3.01273 299.35 
658 2 35.9852 29.3614 3.40323 297.284 
659 2 34.7101 28.5881 3.30219 295.415 
660 2 36.0252 26.4887 2.91915 298.731 
661 2 37.271 27.2245 3.09227 301.221 
662 2 38.4732 29.3586 3.35163 295.892 
663 2 37.1909 28.6334 3.24454 297.142 
664 2 38.482 26.5143 2.99035 298.347 
665 2 39.7296 27.2096 3.12622 303.262 
666 2 40.9974 29.3262 3.34014 301.068 
667 2 39.7355 28.6394 3.29213 303.856 
668 2 40.9941 26.5167 3.07187 299.782 
669 2 42.2491 27.2331 3.09896 298.861 
670 2 43.4917 29.3544 3.14847 297.822 
671 2 42.2771 28.6267 3.1891 297.102 
672 2 43.5197 26.4855 3.00854 296.417 
673 2 44.72 27.2296 2.9524 302.649 
674 2 45.9689 29.3883 3.0869 298.709 
675 2 44.7634 28.6768 3.05321 299.574 
676 2 45.9505 26.5122 2.81205 299.053 
677 2 47.2082 27.2115 2.71546 298.836 
678 2 48.4041 29.3611 3.07038 300.26 
679 2 47.1664 28.6538 2.98976 298.318 
680 2 48.4393 26.4935 2.66503 302.504 
681 2 49.6727 27.2537 2.75482 305.181 
682 2 50.9239 29.4103 3.08388 300.465 
683 2 49.6633 28.6955 2.97775 302.697 
684 2 50.9247 26.5752 2.67061 300.494 
685 2 52.1905 27.3079 2.68676 304.654 
686 2 53.4339 29.4724 2.78404 299.533 
687 2 52.1572 28.7127 2.84195 300.601 
688 2 53.4083 26.6074 2.62372 304.258 
689 2 54.6204 27.3203 2.65531 301.837 
690 2 55.8511 29.3959 2.70465 301.201 
691 2 54.6658 28.7516 2.78201 303.098 
692 2 55.857 26.5861 2.56334 297.417 
693 2 57.1205 27.2575 2.53925 296.511 
694 2 58.4123 29.4352 2.62699 297.592 
695 2 57.1096 28.6954 2.58213 299.775 
696 2 58.4138 26.5701 2.49319 301.584 
697 2 59.6455 27.2759 2.51126 301.045 
698 2 60.8948 29.3762 2.73172 297.284 
699 2 59.629 28.664 2.58242 297.677 
700 2 60.9054 26.5358 2.43757 300.144 
701 2 -0.0414904 31.5538 3.00514 301.196 
702 2 1.28142 33.7145 3.11066 293.381 
703 2 -0.0137243 33.0259 3.06814 296.206 
704 2 1.20371 30.8281 2.99844 299.831 
705 2 2.50553 31.5225 2.93942 301.977 
706 2 3.75497 33.7256 3.02753 296.521 
707 2 2.50781 32.9552 3.02118 296.959 
708 2 3.69782 30.8342 2.75972 301.428 
709 2 4.97581 31.5949 2.72721 295.709 
710 2 6.22011 33.7147 2.79559 296.452 
711 2 4.98161 33.0283 2.85175 294.991 
712 2 6.17843 30.8942 2.50387 297.852 
713 2 7.465 31.6079 2.41875 291.607 
714 2 8.71494 33.7288 2.54796 298.416 
715 2 7.43973 33.0212 2.5586 292.527 
716 2 8.67517 30.8449 2.28885 296.009 
717 2 9.91332 31.5791 2.28525 297.722 
718 2 11.2025 33.773 2.47828 300.402 
719 2 9.97537 33.0415 2.38724 299.146 
720 2 11.1785 30.883 2.29421 295.976 
721 2 12.3965 31.6153 2.30293 292 
722 2 13.6764 33.7153 2.63396 297.088 
723 2 12.4196 33.0424 2.39912 298.421 
724 2 13.6462 30.8756 2.30337 296.446 
725 2 14.8893 31.644 2.31069 302.462 
726 2 16.2036 33.7429 2.60253 294.784 
727 2 14.9156 33.042 2.50097 297.686 
728 2 16.1734 30.9265 2.17822 299.805 
729 2 17.412 31.5878 2.33858 297.51 
730 2 18.6691 33.674 2.72862 301.366 
731 2 17.4109 33.0114 2.57987 299.694 
732 2 18.6748 30.8811 2.26969 300.474 
733 2 19.9211 31.5196 2.59107 300.322 
734 2 21.1524 33.6072 3.13467 300.054 
735 2 19.9135 32.8955 2.79668 301.654 
736 2 21.117 30.7685 2.76045 298.564 
737 2 22.3548 31.4805 3.09786 293.329 
738 2 23.6059 33.549 3.53164 299.186 
739 2 22.3757 32.8797 3.26265 298.165 
740 2 23.6035 30.764 3.07778 298.821 
741 2 24.8353 31.4586 3.33989 298.333 
742 2 26.0939 33.6082 3.65815 297.651 
743 2 24.8259 32.9032 3.55655 301.412 
744 2 26.0585 30.735 3.29921 297.699 
745 2 27.3105 31.446 3.48447 297.286 
746 2 28.5408 33.5504 3.70164 297.017 
747 2 27.276 32.8688 3.68702 295.456 
748 2 28.5528 30.7361 3.45695 298.093 
749 2 29.8191 31.4586 3.57368 297.658 
750 2 31.0562 33.5606 3.92802 300.756 
751 2 29.831 32.8828 3.67244 298.404 
752 2 31.0543 30.7435 3.41306 301.066 
753 2 32.26 31.4542 3.63298 300.38 
754 2 33.4968 33.6095 4.03967 298.6 
755 2 32.2859 32.8357 3.90364 303.667 
756 2 33.5027 30.7455 3.63577 300.235 
757 2 34.7356 31.4771 3.72677 296.828 
758 2 35.9735 33.592 4.21881 299.348 
759 2 34.744 32.9148 3.979 296.409 
760 2 36.0215 30.7861 3.61806 297.572 
761 2 37.2668 31.4874 3.76149 294.374 
762 2 38.5101 33.6045 4.22536 300.311 
763 2 37.2542 32.8777 4.08274 296.457 
764 2 38.4875 30.773 3.65503 292.351 
765 2 39.7454 31.4363 3.75987 297.472 
766 2 40.996 33.5826 3.9593 300.817 
767 2 39.7348 32.8857 3.99313 299.823 
768 2 41.0131 30.8116 3.51694 297.086 
769 2 42.2174 31.5214 3.47366 296.695 
770 2 43.4551 33.6243 3.71025 300.981 
771 2 42.258 32.9315 3.71059 299.187 
772 2 43.4459 30.8111 3.28616 302.01 
773 2 44.6841 31.5066 3.31655 301.051 
774 2 45.9162 33.6384 3.49788 298.976 
775 2 44.6632 32.9485 3.45917 299.577 
776 2 45.9156 30.7688 3.29212 302.008 
777 2 47.1565 31.4661 3.40426 299.612 
778 2 48.3981 33.6897 3.47071 296.913 
779 2 47.158 32.9385 3.52179 299.497 
780 2 48.3878 30.8084 3.25722 295.951 
781 2 49.6349 31.5454 3.32273 300.813 
782 2 50.9061 33.7546 3.46037 296.651 
783 2 49.6524 32.9882 3.43336 305.065 
784 2 50.9043 30.8408 3.23891 300.705 
785 2 52.1586 31.6155 3.13288 297.361 
786 2 53.4516 33.762 3.11975 300.985 
787 2 52.1729 33.0623 3.26716 295.476 
788 2 53.4194 30.8937 2.96974 300.676 
789 2 54.6947 31.6188 2.90264 296.455 
790 2 55.9202 33.7177 3.01999 304.34 
791 2 54.7079 33.0197 2.96626 298.108 
792 2 55.8988 30.8658 2.81688 301.418 
793 2 57.1458 31.5574 2.82317 298.78 
794 2 58.4257 33.7619 2.95895 300.139 
795 2 57.1729 33.031 2.93322 299.353 
796 2 58.4161 30.8676 2.71771 300.521 
797 2 59.6377 31.5524 2.82096 301.352 
798 2 60.9017 33.7708 3.01964 300.251 
799 2 59.6453 33.0123 2.93926 301.436 
800 2 60.839 30.8301 2.7936 296.563 
801 2 0.0343372 35.8871 3.24328 299.097 
802 2 1.24899 38.008 3.38469 298.225 
803 2 0.0350864 37.3228 3.36037 302.88 
804 2 1.28702 35.1596 3.20526 300.639 
805 2 2.51084 35.8732 3.22434 300.821 
806 2 3.72773 37.9658 3.37716 299.124 
807 2 2.50084 37.2675 3.32167 298.438 
808 2 3.74359 35.1523 3.12915 295.073 
809 2 5.00291 35.8303 3.18275 297.802 
810 2 6.22814 37.9822 3.37567 304.303 
811 2 4.99537 37.2817 3.33159 301.647 
812 2 6.25759 35.1336 3.00436 301.082 
813 2 7.45521 35.8386 3.05119 299.752 
814 2 8.70317 38.0404 3.18745 299.483 
815 2 7.49552 37.2553 3.24584 299.302 
816 2 8.73602 35.1488 2.80851 297.311 
817 2 9.98082 35.8839 2.94241 296.303 
818 2 11.2009 37.9938 3.07525 300.546 
819 2 9.9511 37.3126 3.04371 297.861 
820 2 11.222 35.206 2.71762 304.017 
821 2 12.4568 35.8916 2.8159 302.402 
822 2 13.6998 38.0266 3.0306 298.351 
823 2 12.439 37.3482 2.98951 299.88 
824 2 13.657 35.1503 2.76042 298.233 
825 2 14.9302 35.8343 2.83964 301.617 
826 2 16.1935 38.0346 3.08539 302.377 
827 2 14.9612 37.3102 3.00269 302.522 
828 2 16.1735 35.1503 2.75461 302.013 
829 2 17.397 35.8605 2.87822 302.523 
830 2 18.6288 38.0059 3.1156 301.696 
831 2 17.4023 37.2963 3.07772 302.174 
832 2 18.6442 35.1051 2.88281 302.629 
833 2 19.843 35.8684 3.04161 297.838 
834 2 21.092 37.9531 3.37549 300.908 
835 2 19.8713 37.2585 3.15347 300.221 
836 2 21.0802 35.0466 3.16709 298.582 
837 2 22.3225 35.7592 3.4461 298.034 
838 2 23.5412 37.8903 3.70542 303.377 
839 2 22.2732 37.2091 3.5188 302.269 
840 2 23.5897 35.029 3.65087 300.4 
841 2 24.8416 35.7667 3.74411 300.247 
842 2 26.0097 37.8857 3.94566 299.931 
843 2 24.7765 37.2077 3.74928 301.536 
844 2 26.0642 35.063 3.72377 301.78 
845 2 27.2996 35.7244 3.79281 303.62 
846 2 28.515 37.9144 4.07904 299.123 
847 2 27.2518 37.1883 3.89213 302.849 
848 2 28.5529 35.0192 3.82019 298.951 
849 2 29.7485 35.7725 3.9753 298.205 
850 2 31.0014 37.8936 4.48118 297.697 
851 2 29.7821 37.2158 4.08872 299.98 
852 2 31.0353 35.0137 4.12662 296.339 
853 2 32.2331 35.7441 4.38348 299.556 
854 2 33.4811 37.8756 4.60442 302.952 
855 2 32.2249 37.175 4.47439 296.559 
856 2 33.491 35.0385 4.31426 298.718 
857 2 34.7762 35.7123 4.53567 303.544 
858 2 35.9878 37.9052 4.78723 301.737 
859 2 34.7156 37.145 4.68515 304.675 
860 2 36.0003 34.982 4.4605 300.707 
861 2 37.2605 35.7178 4.53289 303.073 
862 2 38.46 37.8574 4.73033 295.215 
863 2 37.1988 37.1425 4.72 298.896 
864 2 38.5465 35.0307 4.36481 296.879 
865 2 39.7648 35.709 4.42544 298.125 
866 2 40.9875 37.8688 4.68674 298.574 
867 2 39.7566 37.1969 4.57197 294.775 
868 2 40.9774 35.0021 4.20683 298.413 
869 2 42.2526 35.7331 4.23716 296.771 
870 2 43.4426 37.9145 4.31072 304.059 
871 2 42.221 37.1907 4.40297 300.683 
872 2 43.5277 35.0233 4.00238 296.474 
873 2 44.7281 35.766 3.99635 297.561 
874 2 45.9068 37.9232 4.05363 297.097 
875 2 44.6677 37.1886 4.08676 304.32 
876 2 45.9521 35.0823 3.74179 298.358 
877 2 47.1803 35.7975 3.71169 298.512 
878 2 48.4179 37.9583 3.91922 299.09 
879 2 47.1704 37.2386 3.80657 298.782 
880 2 48.4199 35.1385 3.59417 296.138 
881 2 49.649 35.8697 3.52135 297.505 
882 2 50.9445 37.965 3.76278 301.264 
883 2 49.6539 37.2896 3.72377 300.09 
884 2 50.9129 35.2056 3.35124 294.711 
885 2 52.1935 35.8726 3.34764 295.58 
886 2 53.4084 37.9942 3.73148 304.793 
887 2 52.1866 37.254 3.58473 302.838 
888 2 53.4121 35.2072 3.19605 302.778 
889 2 54.6608 35.8896 3.28475 304.081 
890 2 55.9366 38.0229 3.74863 303.115 
891 2 54.6819 37.3029 3.55173 304.398 
892 2 55.9211 35.1522 3.19057 303.42 
893 2 57.1638 35.8746 3.25037 295.402 
894 2 58.4069 38.0198 3.4677 297.991 
895 2 57.1394 37.3463 3.4654 297.155 
896 2 58.4363 35.1969 3.13027 302.392 
897 2 59.664 35.8878 3.13255 301.845 
898 2 60.8667 38.0159 3.35054 299.628 
899 2 59.6454 37.3007 3.24061 295.786 
900 2 60.8729 35.1667 3.14528 295.943 
901 2 0.0101026 40.1476 3.60189 300.931 
902 2 1.21591 42.2791 3.57188 296.217 
903 2 -0.00854874 41.5642 3.6028 300.236 
904 2 1.26436 39.4341 3.58624 296.387 
905 2 2.51211 40.1496 3.58813 295.07 
906 2 3.73446 42.2634 3.57088 298.809 
907 2 2.49666 41.5638 3.56802 296.401 
908 2 3.74786 39.4502 3.48861 299.155 
909 2 4.98507 40.1372 3.5552 300.116 
910 2 6.19204 42.2892 3.58243 295.974 
911 2 4.9591 41.5826 3.62006 302.55 
912 2 6.23156 39.4181 3.52222 301.488 
913 2 7.46666 40.1367 3.5755 301.447 
914 2 8.72911 42.3093 3.60496 300.286 
915 2 7.4595 41.5653 3.55341 297.058 
916 2 8.67851 39.4178 3.368 302.203 
917 2 9.93876 40.1517 3.33443 297.109 
918 2 11.2105 42.2971 3.62183 301.811 
919 2 9.93504 41.5959 3.50736 300.663 
920 2 11.1876 39.4843 3.24794 297.079 
921 2 12.4413 40.1538 3.26138 300.49 
922 2 13.6442 42.3509 3.53503 303.276 
923 2 12.4383 41.5932 3.50224 301.927 
924 2 13.6613 39.4625 3.18215 299.474 
925 2 14.9209 40.2073 3.24662 299.792 
926 2 16.1671 42.3253 3.4891 299.905 
927 2 14.91 41.6412 3.44916 300.924 
928 2 16.1643 39.487 3.15852 300.355 
929 2 17.423 40.1576 3.21267 300.387 
930 2 18.6287 42.2622 3.75713 302.354 
931 2 17.388 41.5937 3.48613 298.279 
932 2 18.6425 39.3997 3.28403 298.41 
933 2 19.8662 40.147 3.4943 299.689 
934 2 21.1473 42.2639 3.8647 299.923 
935 2 19.8886 41.5536 3.72449 302.418 
936 2 21.1482 39.3908 3.43087 305.11 
937 2 22.3413 40.0938 3.69975 300.283 
938 2 23.5667 42.2143 4.17429 297.245 
939 2 22.3548 41.4921 3.87594 295.564 
940 2 23.5573 39.3922 3.82393 296.893 
941 2 24.7916 40.0826 4.04042 298.353 
942 2 26.0416 42.1854 4.39014 298.065 
943 2 24.7753 41.525 4.20651 295.196 
944 2 26.0382 39.3219 4.0649 300.871 
945 2 27.2832 40.0638 4.18057 300.325 